# vtk DataFile Version 3.1
# created by Obj2Vtk.java; Author: Matthew Dorsey (madorse2@ncsu.edu)
ASCII
DATASET UNSTRUCTURED_GRID
POINTS 152 FLOAT
	-1.0	-0.5	0.0	
	-0.976	-0.345	0.0	
	-0.905	-0.206	0.0	
	-0.794	-0.095	0.0	
	-0.655	-0.024	0.0	
	-0.5	0.0	0.0	
	-0.345	-0.024	0.0	
	-0.206	-0.095	0.0	
	-0.095	-0.206	0.0	
	-0.024	-0.345	0.0	
	-0.976	-0.345	0.31	
	0.0	-0.5	0.0	
	-0.905	-0.206	0.31	
	-0.655	0.024	0.0	
	-0.794	0.095	0.0	
	-1.0	-0.5	0.31	
	-0.5	-1.0	0.0	
	-0.655	-0.976	0.0	
	-0.794	-0.905	0.0	
	-0.905	-0.794	0.0	
	-0.976	-0.655	0.0	
	-0.024	-0.655	0.0	
	-0.095	-0.794	0.0	
	-0.905	0.206	0.0	
	-0.206	-0.905	0.0	
	-0.345	-0.976	0.0	
	-0.976	0.345	0.0	
	-1.0	0.5	0.0	
	0.0	0.5	0.0	
	-0.345	0.024	0.0	
	-0.206	0.095	0.0	
	-0.206	0.095	0.31	
	-0.024	0.345	0.0	
	-0.095	0.206	0.0	
	-0.5	-1.0	0.31	
	0.905	-0.794	0.0	
	-0.5	0.0	0.31	
	-0.655	-0.024	0.31	
	0.976	-0.655	0.0	
	-0.794	-0.095	0.31	
	0.976	-0.655	0.31	
	-0.345	-0.976	0.31	
	0.905	-0.794	0.31	
	-0.5	1.0	0.31	
	-0.655	0.976	0.31	
	-0.794	0.905	0.31	
	-0.905	0.794	0.31	
	-0.976	0.655	0.31	
	0.0	-0.5	0.31	
	-0.206	-0.905	0.31	
	-0.024	-0.345	0.31	
	-0.095	-0.206	0.31	
	-0.206	-0.095	0.31	
	-0.345	-0.024	0.31	
	-0.024	0.655	0.31	
	-0.095	0.794	0.31	
	-0.206	0.905	0.31	
	-0.345	0.976	0.31	
	-0.024	-0.655	0.31	
	-0.095	-0.794	0.31	
	-0.976	-0.655	0.31	
	-0.905	-0.794	0.31	
	-0.794	-0.905	0.31	
	-0.655	-0.976	0.31	
	0.0	0.5	0.31	
	-1.0	0.5	0.31	
	-0.976	0.345	0.31	
	-0.905	0.206	0.31	
	-0.794	0.095	0.31	
	-0.655	0.024	0.31	
	-0.345	0.024	0.31	
	-0.095	0.206	0.31	
	-0.024	0.345	0.31	
	-0.024	0.655	0.0	
	-0.095	0.794	0.0	
	-0.206	0.905	0.0	
	-0.345	0.976	0.0	
	-0.5	1.0	0.0	
	-0.976	0.655	0.0	
	-0.905	0.794	0.0	
	-0.794	0.905	0.0	
	-0.655	0.976	0.0	
	1.0	-0.5	0.0	
	0.976	-0.345	0.0	
	0.976	-0.345	0.31	
	1.0	-0.5	0.31	
	0.655	0.024	0.0	
	0.024	-0.655	0.0	
	0.024	-0.655	0.31	
	0.095	-0.794	0.0	
	0.095	-0.794	0.31	
	0.206	-0.905	0.0	
	0.206	-0.905	0.31	
	0.345	-0.976	0.0	
	0.345	-0.976	0.31	
	0.5	-1.0	0.0	
	0.5	-1.0	0.31	
	0.905	-0.206	0.0	
	0.905	-0.206	0.31	
	0.794	0.095	0.0	
	0.794	0.095	0.31	
	0.655	0.024	0.31	
	0.794	-0.095	0.0	
	0.794	-0.095	0.31	
	0.905	0.206	0.0	
	0.794	-0.905	0.0	
	0.905	0.206	0.31	
	0.655	-0.976	0.0	
	0.655	-0.024	0.0	
	0.655	-0.024	0.31	
	0.976	0.345	0.0	
	0.976	0.345	0.31	
	0.5	0.0	0.0	
	0.5	0.0	0.31	
	0.5	1.0	0.31	
	1.0	0.5	0.0	
	0.345	0.976	0.31	
	1.0	0.5	0.31	
	0.206	0.905	0.31	
	0.095	0.794	0.31	
	0.024	0.655	0.31	
	0.976	0.655	0.31	
	0.905	0.794	0.31	
	0.794	0.905	0.31	
	0.655	0.976	0.31	
	0.345	-0.024	0.0	
	0.345	-0.024	0.31	
	0.206	-0.095	0.0	
	0.206	-0.095	0.31	
	0.095	-0.206	0.0	
	0.095	-0.206	0.31	
	0.024	0.345	0.31	
	0.095	0.206	0.31	
	0.206	0.095	0.31	
	0.345	0.024	0.31	
	0.024	0.345	0.0	
	0.024	-0.345	0.0	
	0.024	-0.345	0.31	
	0.095	0.206	0.0	
	0.976	0.655	0.0	
	0.206	0.095	0.0	
	0.345	0.024	0.0	
	0.905	0.794	0.0	
	0.794	0.905	0.0	
	0.024	0.655	0.0	
	0.095	0.794	0.0	
	0.206	0.905	0.0	
	0.655	0.976	0.0	
	0.345	0.976	0.0	
	0.5	1.0	0.0	
	0.655	-0.976	0.31	
	0.794	-0.905	0.31	
CELLS 304 1216
3 86 99 100 
3 86 100 101 
3 99 104 106 
3 99 106 100 
3 104 110 111 
3 104 111 106 
3 110 115 117 
3 110 117 111 
3 118 117 116 
3 119 117 118 
3 120 117 119 
3 116 117 114 
3 114 121 122 
3 114 122 123 
3 114 123 124 
3 121 117 115 
3 28 64 120 
3 64 28 135 
3 64 135 131 
3 64 117 120 
3 121 114 117 
3 117 64 131 
3 117 131 132 
3 117 132 133 
3 117 133 134 
3 117 134 113 
3 117 113 101 
3 117 101 100 
3 117 100 106 
3 117 106 111 
3 135 138 132 
3 135 132 131 
3 138 140 133 
3 138 133 132 
3 115 139 121 
3 139 142 122 
3 139 122 121 
3 141 134 133 
3 141 133 140 
3 142 143 123 
3 142 123 122 
3 112 113 134 
3 112 134 141 
3 143 147 124 
3 143 124 123 
3 28 144 145 
3 28 145 146 
3 28 146 148 
3 28 148 149 
3 28 149 147 
3 28 147 143 
3 28 143 142 
3 28 142 139 
3 28 139 115 
3 147 149 114 
3 147 114 124 
3 149 148 116 
3 149 116 114 
3 148 146 118 
3 148 118 116 
3 146 145 119 
3 146 119 118 
3 140 115 141 
3 138 115 140 
3 135 115 138 
3 28 115 135 
3 112 141 115 
3 112 115 110 
3 112 110 104 
3 112 104 99 
3 112 99 86 
3 145 144 120 
3 145 120 119 
3 144 28 120 
3 113 112 86 
3 113 86 101 
3 2 1 10 
3 2 10 12 
3 1 2 0 
3 0 2 3 
3 0 3 4 
3 0 4 5 
3 0 5 6 
3 0 6 7 
3 0 7 8 
3 0 8 9 
3 0 9 11 
3 0 11 21 
3 1 0 15 
3 1 15 10 
3 18 21 17 
3 19 21 18 
3 20 21 19 
3 0 21 20 
3 16 17 21 
3 16 21 22 
3 16 22 24 
3 16 24 25 
3 34 16 25 
3 34 25 41 
3 35 38 40 
3 35 40 42 
3 39 48 37 
3 12 48 39 
3 10 48 12 
3 15 48 10 
3 36 37 48 
3 36 48 50 
3 36 50 51 
3 36 51 52 
3 36 52 53 
3 25 24 49 
3 25 49 41 
3 24 22 59 
3 24 59 49 
3 58 48 15 
3 58 15 60 
3 58 60 61 
3 58 61 62 
3 58 62 63 
3 58 63 34 
3 58 34 41 
3 58 41 49 
3 58 49 59 
3 22 21 58 
3 22 58 59 
3 48 58 21 
3 21 11 48 
3 60 15 20 
3 0 20 15 
3 11 9 50 
3 11 50 48 
3 20 19 61 
3 20 61 60 
3 9 8 51 
3 9 51 50 
3 19 18 62 
3 19 62 61 
3 17 63 62 
3 17 62 18 
3 8 7 52 
3 8 52 51 
3 16 34 63 
3 16 63 17 
3 7 6 53 
3 7 53 52 
3 6 5 36 
3 6 36 53 
3 82 83 84 
3 82 84 85 
3 5 4 37 
3 5 37 36 
3 11 87 88 
3 4 3 39 
3 4 39 37 
3 87 89 90 
3 87 90 88 
3 89 91 92 
3 89 92 90 
3 3 2 12 
3 3 12 39 
3 93 94 92 
3 93 92 91 
3 95 96 94 
3 95 94 93 
3 83 97 98 
3 83 98 84 
3 97 102 103 
3 97 103 98 
3 91 82 93 
3 89 82 91 
3 87 82 89 
3 11 82 87 
3 93 82 95 
3 95 38 35 
3 95 35 105 
3 95 105 107 
3 102 108 109 
3 102 109 103 
3 108 112 113 
3 108 113 109 
3 112 125 126 
3 112 126 113 
3 125 127 128 
3 125 128 126 
3 127 129 130 
3 127 130 128 
3 129 136 137 
3 129 137 130 
3 136 11 48 
3 136 48 137 
3 48 11 88 
3 96 95 107 
3 96 107 150 
3 107 105 151 
3 107 151 150 
3 105 35 42 
3 105 42 151 
3 128 130 85 
3 130 137 85 
3 137 48 85 
3 48 88 85 
3 88 90 85 
3 126 128 85 
3 113 126 85 
3 113 85 84 
3 113 84 98 
3 113 98 103 
3 113 103 109 
3 90 92 85 
3 92 94 85 
3 94 96 85 
3 40 85 96 
3 40 96 150 
3 40 150 151 
3 40 151 42 
3 136 129 11 
3 11 129 127 
3 11 127 125 
3 11 125 112 
3 11 112 108 
3 11 108 102 
3 11 102 97 
3 11 97 83 
3 11 83 82 
3 38 95 82 
3 38 82 85 
3 38 85 40 
3 14 28 13 
3 23 28 14 
3 26 28 23 
3 27 28 26 
3 5 13 28 
3 5 28 32 
3 5 32 33 
3 5 33 30 
3 5 30 29 
3 45 54 44 
3 46 54 45 
3 47 54 46 
3 43 44 54 
3 43 54 55 
3 43 55 56 
3 43 56 57 
3 47 65 54 
3 66 64 65 
3 54 65 64 
3 64 66 67 
3 64 67 68 
3 64 68 69 
3 64 69 36 
3 64 36 70 
3 64 70 31 
3 64 31 71 
3 64 71 72 
3 28 73 54 
3 73 74 55 
3 73 55 54 
3 74 75 56 
3 74 56 55 
3 75 76 57 
3 75 57 56 
3 76 77 43 
3 76 43 57 
3 77 81 44 
3 77 44 43 
3 27 78 79 
3 27 79 80 
3 27 80 81 
3 27 81 77 
3 27 77 76 
3 27 76 75 
3 27 75 74 
3 27 74 73 
3 27 73 28 
3 81 80 45 
3 81 45 44 
3 80 79 46 
3 80 46 45 
3 79 78 47 
3 79 47 46 
3 78 27 47 
3 29 30 31 
3 29 31 70 
3 36 5 29 
3 36 29 70 
3 30 33 71 
3 30 71 31 
3 33 32 72 
3 33 72 71 
3 32 28 64 
3 32 64 72 
3 54 64 28 
3 27 65 47 
3 65 27 26 
3 65 26 66 
3 26 23 67 
3 26 67 66 
3 23 14 68 
3 23 68 67 
3 13 69 68 
3 13 68 14 
3 5 36 69 
3 5 69 13 
CELL_TYPES 304
5
5
5
5
5
5
5
5
5
5
5
5
5
5
5
5
5
5
5
5
5
5
5
5
5
5
5
5
5
5
5
5
5
5
5
5
5
5
5
5
5
5
5
5
5
5
5
5
5
5
5
5
5
5
5
5
5
5
5
5
5
5
5
5
5
5
5
5
5
5
5
5
5
5
5
5
5
5
5
5
5
5
5
5
5
5
5
5
5
5
5
5
5
5
5
5
5
5
5
5
5
5
5
5
5
5
5
5
5
5
5
5
5
5
5
5
5
5
5
5
5
5
5
5
5
5
5
5
5
5
5
5
5
5
5
5
5
5
5
5
5
5
5
5
5
5
5
5
5
5
5
5
5
5
5
5
5
5
5
5
5
5
5
5
5
5
5
5
5
5
5
5
5
5
5
5
5
5
5
5
5
5
5
5
5
5
5
5
5
5
5
5
5
5
5
5
5
5
5
5
5
5
5
5
5
5
5
5
5
5
5
5
5
5
5
5
5
5
5
5
5
5
5
5
5
5
5
5
5
5
5
5
5
5
5
5
5
5
5
5
5
5
5
5
5
5
5
5
5
5
5
5
5
5
5
5
5
5
5
5
5
5
5
5
5
5
5
5
5
5
5
5
5
5
5
5
5
5
5
5
5
5
5
5
5
5
5
5
5
5
5
5
5
5
5
5
5
5
5
5
5
5
5
5
CELL_DATA 304
COLOR_SCALARS faceColor 3
0.23137255 0.33333334 0.6392157
0.23137255 0.33333334 0.6392157
0.23137255 0.33333334 0.6392157
0.23137255 0.33333334 0.6392157
0.23137255 0.33333334 0.6392157
0.23137255 0.33333334 0.6392157
0.23137255 0.33333334 0.6392157
0.23137255 0.33333334 0.6392157
0.23137255 0.33333334 0.6392157
0.23137255 0.33333334 0.6392157
0.23137255 0.33333334 0.6392157
0.23137255 0.33333334 0.6392157
0.23137255 0.33333334 0.6392157
0.23137255 0.33333334 0.6392157
0.23137255 0.33333334 0.6392157
0.23137255 0.33333334 0.6392157
0.23137255 0.33333334 0.6392157
0.23137255 0.33333334 0.6392157
0.23137255 0.33333334 0.6392157
0.23137255 0.33333334 0.6392157
0.23137255 0.33333334 0.6392157
0.23137255 0.33333334 0.6392157
0.23137255 0.33333334 0.6392157
0.23137255 0.33333334 0.6392157
0.23137255 0.33333334 0.6392157
0.23137255 0.33333334 0.6392157
0.23137255 0.33333334 0.6392157
0.23137255 0.33333334 0.6392157
0.23137255 0.33333334 0.6392157
0.23137255 0.33333334 0.6392157
0.23137255 0.33333334 0.6392157
0.23137255 0.33333334 0.6392157
0.23137255 0.33333334 0.6392157
0.23137255 0.33333334 0.6392157
0.23137255 0.33333334 0.6392157
0.23137255 0.33333334 0.6392157
0.23137255 0.33333334 0.6392157
0.23137255 0.33333334 0.6392157
0.23137255 0.33333334 0.6392157
0.23137255 0.33333334 0.6392157
0.23137255 0.33333334 0.6392157
0.23137255 0.33333334 0.6392157
0.23137255 0.33333334 0.6392157
0.23137255 0.33333334 0.6392157
0.23137255 0.33333334 0.6392157
0.23137255 0.33333334 0.6392157
0.23137255 0.33333334 0.6392157
0.23137255 0.33333334 0.6392157
0.23137255 0.33333334 0.6392157
0.23137255 0.33333334 0.6392157
0.23137255 0.33333334 0.6392157
0.23137255 0.33333334 0.6392157
0.23137255 0.33333334 0.6392157
0.23137255 0.33333334 0.6392157
0.23137255 0.33333334 0.6392157
0.23137255 0.33333334 0.6392157
0.23137255 0.33333334 0.6392157
0.23137255 0.33333334 0.6392157
0.23137255 0.33333334 0.6392157
0.23137255 0.33333334 0.6392157
0.23137255 0.33333334 0.6392157
0.23137255 0.33333334 0.6392157
0.23137255 0.33333334 0.6392157
0.23137255 0.33333334 0.6392157
0.23137255 0.33333334 0.6392157
0.23137255 0.33333334 0.6392157
0.23137255 0.33333334 0.6392157
0.23137255 0.33333334 0.6392157
0.23137255 0.33333334 0.6392157
0.23137255 0.33333334 0.6392157
0.23137255 0.33333334 0.6392157
0.23137255 0.33333334 0.6392157
0.23137255 0.33333334 0.6392157
0.23137255 0.33333334 0.6392157
0.23137255 0.33333334 0.6392157
0.23137255 0.33333334 0.6392157
0.7490196 0.78039217 0.8
0.7490196 0.78039217 0.8
0.7490196 0.78039217 0.8
0.7490196 0.78039217 0.8
0.7490196 0.78039217 0.8
0.7490196 0.78039217 0.8
0.7490196 0.78039217 0.8
0.7490196 0.78039217 0.8
0.7490196 0.78039217 0.8
0.7490196 0.78039217 0.8
0.7490196 0.78039217 0.8
0.7490196 0.78039217 0.8
0.7490196 0.78039217 0.8
0.7490196 0.78039217 0.8
0.7490196 0.78039217 0.8
0.7490196 0.78039217 0.8
0.7490196 0.78039217 0.8
0.7490196 0.78039217 0.8
0.7490196 0.78039217 0.8
0.7490196 0.78039217 0.8
0.7490196 0.78039217 0.8
0.7490196 0.78039217 0.8
0.7490196 0.78039217 0.8
0.7490196 0.78039217 0.8
0.7490196 0.78039217 0.8
0.7490196 0.78039217 0.8
0.7490196 0.78039217 0.8
0.7490196 0.78039217 0.8
0.7490196 0.78039217 0.8
0.7490196 0.78039217 0.8
0.7490196 0.78039217 0.8
0.7490196 0.78039217 0.8
0.7490196 0.78039217 0.8
0.7490196 0.78039217 0.8
0.7490196 0.78039217 0.8
0.7490196 0.78039217 0.8
0.7490196 0.78039217 0.8
0.7490196 0.78039217 0.8
0.7490196 0.78039217 0.8
0.7490196 0.78039217 0.8
0.7490196 0.78039217 0.8
0.7490196 0.78039217 0.8
0.7490196 0.78039217 0.8
0.7490196 0.78039217 0.8
0.7490196 0.78039217 0.8
0.7490196 0.78039217 0.8
0.7490196 0.78039217 0.8
0.7490196 0.78039217 0.8
0.7490196 0.78039217 0.8
0.7490196 0.78039217 0.8
0.7490196 0.78039217 0.8
0.7490196 0.78039217 0.8
0.7490196 0.78039217 0.8
0.7490196 0.78039217 0.8
0.7490196 0.78039217 0.8
0.7490196 0.78039217 0.8
0.7490196 0.78039217 0.8
0.7490196 0.78039217 0.8
0.7490196 0.78039217 0.8
0.7490196 0.78039217 0.8
0.7490196 0.78039217 0.8
0.7490196 0.78039217 0.8
0.7490196 0.78039217 0.8
0.7490196 0.78039217 0.8
0.7490196 0.78039217 0.8
0.7490196 0.78039217 0.8
0.7490196 0.78039217 0.8
0.7490196 0.78039217 0.8
0.7490196 0.78039217 0.8
0.7490196 0.78039217 0.8
0.7490196 0.78039217 0.8
0.7490196 0.78039217 0.8
0.7490196 0.78039217 0.8
0.7490196 0.78039217 0.8
0.7490196 0.78039217 0.8
0.7490196 0.78039217 0.8
0.7490196 0.78039217 0.8
0.7490196 0.78039217 0.8
0.7490196 0.78039217 0.8
0.7490196 0.78039217 0.8
0.7490196 0.78039217 0.8
0.7490196 0.78039217 0.8
0.7490196 0.78039217 0.8
0.7490196 0.78039217 0.8
0.7490196 0.78039217 0.8
0.7490196 0.78039217 0.8
0.7490196 0.78039217 0.8
0.7490196 0.78039217 0.8
0.7490196 0.78039217 0.8
0.7490196 0.78039217 0.8
0.7490196 0.78039217 0.8
0.7490196 0.78039217 0.8
0.7490196 0.78039217 0.8
0.7490196 0.78039217 0.8
0.7490196 0.78039217 0.8
0.7490196 0.78039217 0.8
0.7490196 0.78039217 0.8
0.7490196 0.78039217 0.8
0.7490196 0.78039217 0.8
0.7490196 0.78039217 0.8
0.7490196 0.78039217 0.8
0.7490196 0.78039217 0.8
0.7490196 0.78039217 0.8
0.7490196 0.78039217 0.8
0.7490196 0.78039217 0.8
0.7490196 0.78039217 0.8
0.7490196 0.78039217 0.8
0.7490196 0.78039217 0.8
0.7490196 0.78039217 0.8
0.7490196 0.78039217 0.8
0.7490196 0.78039217 0.8
0.7490196 0.78039217 0.8
0.7490196 0.78039217 0.8
0.7490196 0.78039217 0.8
0.7490196 0.78039217 0.8
0.7490196 0.78039217 0.8
0.7490196 0.78039217 0.8
0.7490196 0.78039217 0.8
0.7490196 0.78039217 0.8
0.7490196 0.78039217 0.8
0.7490196 0.78039217 0.8
0.7490196 0.78039217 0.8
0.7490196 0.78039217 0.8
0.7490196 0.78039217 0.8
0.7490196 0.78039217 0.8
0.7490196 0.78039217 0.8
0.7490196 0.78039217 0.8
0.7490196 0.78039217 0.8
0.7490196 0.78039217 0.8
0.7490196 0.78039217 0.8
0.7490196 0.78039217 0.8
0.7490196 0.78039217 0.8
0.7490196 0.78039217 0.8
0.7490196 0.78039217 0.8
0.7490196 0.78039217 0.8
0.7490196 0.78039217 0.8
0.7490196 0.78039217 0.8
0.7490196 0.78039217 0.8
0.7490196 0.78039217 0.8
0.7490196 0.78039217 0.8
0.7490196 0.78039217 0.8
0.7490196 0.78039217 0.8
0.7490196 0.78039217 0.8
0.7490196 0.78039217 0.8
0.7490196 0.78039217 0.8
0.7490196 0.78039217 0.8
0.7490196 0.78039217 0.8
0.7490196 0.78039217 0.8
0.7490196 0.78039217 0.8
0.7490196 0.78039217 0.8
0.7490196 0.78039217 0.8
0.7490196 0.78039217 0.8
0.9137255 0.11372549 0.1764706
0.9137255 0.11372549 0.1764706
0.9137255 0.11372549 0.1764706
0.9137255 0.11372549 0.1764706
0.9137255 0.11372549 0.1764706
0.9137255 0.11372549 0.1764706
0.9137255 0.11372549 0.1764706
0.9137255 0.11372549 0.1764706
0.9137255 0.11372549 0.1764706
0.9137255 0.11372549 0.1764706
0.9137255 0.11372549 0.1764706
0.9137255 0.11372549 0.1764706
0.9137255 0.11372549 0.1764706
0.9137255 0.11372549 0.1764706
0.9137255 0.11372549 0.1764706
0.9137255 0.11372549 0.1764706
0.9137255 0.11372549 0.1764706
0.9137255 0.11372549 0.1764706
0.9137255 0.11372549 0.1764706
0.9137255 0.11372549 0.1764706
0.9137255 0.11372549 0.1764706
0.9137255 0.11372549 0.1764706
0.9137255 0.11372549 0.1764706
0.9137255 0.11372549 0.1764706
0.9137255 0.11372549 0.1764706
0.9137255 0.11372549 0.1764706
0.9137255 0.11372549 0.1764706
0.9137255 0.11372549 0.1764706
0.9137255 0.11372549 0.1764706
0.9137255 0.11372549 0.1764706
0.9137255 0.11372549 0.1764706
0.9137255 0.11372549 0.1764706
0.9137255 0.11372549 0.1764706
0.9137255 0.11372549 0.1764706
0.9137255 0.11372549 0.1764706
0.9137255 0.11372549 0.1764706
0.9137255 0.11372549 0.1764706
0.9137255 0.11372549 0.1764706
0.9137255 0.11372549 0.1764706
0.9137255 0.11372549 0.1764706
0.9137255 0.11372549 0.1764706
0.9137255 0.11372549 0.1764706
0.9137255 0.11372549 0.1764706
0.9137255 0.11372549 0.1764706
0.9137255 0.11372549 0.1764706
0.9137255 0.11372549 0.1764706
0.9137255 0.11372549 0.1764706
0.9137255 0.11372549 0.1764706
0.9137255 0.11372549 0.1764706
0.9137255 0.11372549 0.1764706
0.9137255 0.11372549 0.1764706
0.9137255 0.11372549 0.1764706
0.9137255 0.11372549 0.1764706
0.9137255 0.11372549 0.1764706
0.9137255 0.11372549 0.1764706
0.9137255 0.11372549 0.1764706
0.9137255 0.11372549 0.1764706
0.9137255 0.11372549 0.1764706
0.9137255 0.11372549 0.1764706
0.9137255 0.11372549 0.1764706
0.9137255 0.11372549 0.1764706
0.9137255 0.11372549 0.1764706
0.9137255 0.11372549 0.1764706
0.9137255 0.11372549 0.1764706
0.9137255 0.11372549 0.1764706
0.9137255 0.11372549 0.1764706
0.9137255 0.11372549 0.1764706
0.9137255 0.11372549 0.1764706
0.9137255 0.11372549 0.1764706
0.9137255 0.11372549 0.1764706
0.9137255 0.11372549 0.1764706
0.9137255 0.11372549 0.1764706
0.9137255 0.11372549 0.1764706
0.9137255 0.11372549 0.1764706
0.9137255 0.11372549 0.1764706
0.9137255 0.11372549 0.1764706
